<VTKFile type="PolyData" version="0.1" byte_order="LittleEndian" header_type="UInt64">
  <PolyData>
    <Piece NumberOfPoints="42" NumberOfVerts="0" NumberOfLines="0" NumberOfStrips="0" NumberOfPolys="80">
      <PointData>
      </PointData>
      <CellData Scalars="STLSolidLabeling">
        <DataArray type="Float32" Name="STLSolidLabeling" format="ascii" RangeMin="0" RangeMax="0">
          0 0 0 0 0 0
          0 0 0 0 0 0
          0 0 0 0 0 0
          0 0 0 0 0 0
          0 0 0 0 0 0
          0 0 0 0 0 0
          0 0 0 0 0 0
          0 0 0 0 0 0
          0 0 0 0 0 0
          0 0 0 0 0 0
          0 0 0 0 0 0
          0 0 0 0 0 0
          0 0 0 0 0 0
          0 0
        </DataArray>
      </CellData>
      <Points>
        <DataArray type="Float32" Name="Points" NumberOfComponents="3" format="ascii" RangeMin="0.0069432492003" RangeMax="0.038366127143">
          0.0015355810756 -0.038074962795 0.0044608195312 0.0062932539731 -0.0042574829422 0.0053910426795
          -0.00405834103 -0.0050342371687 0.0035212812945 0.0060284938663 -0.0048988182098 -0.00094059150433
          0.0012296466157 -0.0057365098037 -0.0059604686685 -0.0039678327739 -0.0054689343087 -0.0015986775979
          0.0046119126491 -0.01029168535 0.0004219293769 0.0041059679352 -0.0099481325597 0.005726812873
          0.0013378983131 -0.00400000019 0.0074461991899 0.0012263517128 -0.00919094868 0.0072849034332
          0.0020262489561 -0.01133660879 -0.0044270223007 -0.0031913605053 -0.01094500348 -0.00068453821586
          -0.0032343722414 -0.010363894515 0.003623303026 0.0045297038741 -0.036831110716 0.0077071622945
          0.0020791382995 -0.036063309759 0.0083204209805 0.0011328584515 -0.037709515542 0.0045391158201
          0.0036507032346 -0.034779660404 0.00098442425951 -0.0012258541537 -0.03294513002 0.0038781496696
          0.005637456663 -0.032257560641 0.005702638533 0.0033013045322 -0.015688402578 0.0019869543612
          0.0034867438953 -0.015848845243 0.0062995692715 0.0012567152735 -0.014614253305 0.0073026008904
          0.0016888428945 -0.016983490437 -0.0020910929888 -0.0021929158829 -0.015392302535 0.0052511128597
          -0.0023521922994 -0.01641895622 0.00010813410336 0.00805834122 -0.032283723354 0.0098928175867
          0.0041443132795 -0.035652145743 0.010807990097 0.0026702526957 -0.035741645843 0.010350754485
          -8.3060367615e-006 -0.031389098614 0.0070321299136 0.0024234463926 -0.030405988917 0.009680534713
          -0.0010259241099 -0.026090787724 0.0068292156793 -0.0018843050348 -0.027407230809 0.0027285462711
          0.0025398742873 -0.028778303415 0.0014225768391 0.0042233904824 -0.026778291911 0.0043728742748
          0.0051610721275 -0.027636110783 0.0091266799718 0.0036996498238 -0.022145459428 0.0078205298632
          0.0032476503402 -0.02133131586 0.00308637321 0.0010180734098 -0.019939668477 0.0077581931837
          0.0016776062548 -0.02299239859 -0.00054926855955 -0.0015196206514 -0.020632280037 0.0064655859023
          -0.0020597884431 -0.021878054366 0.0015670855064 0.0017707006773 -0.025152979419 0.0087600145489
        </DataArray>
      </Points>
      <Verts>
        <DataArray type="Int64" Name="connectivity" format="ascii" RangeMin="1e+299" RangeMax="-1e+299">
        </DataArray>
        <DataArray type="Int64" Name="offsets" format="ascii" RangeMin="1e+299" RangeMax="-1e+299">
        </DataArray>
      </Verts>
      <Lines>
        <DataArray type="Int64" Name="connectivity" format="ascii" RangeMin="1e+299" RangeMax="-1e+299">
        </DataArray>
        <DataArray type="Int64" Name="offsets" format="ascii" RangeMin="1e+299" RangeMax="-1e+299">
        </DataArray>
      </Lines>
      <Strips>
        <DataArray type="Int64" Name="connectivity" format="ascii" RangeMin="1e+299" RangeMax="-1e+299">
        </DataArray>
        <DataArray type="Int64" Name="offsets" format="ascii" RangeMin="1e+299" RangeMax="-1e+299">
        </DataArray>
      </Strips>
      <Polys>
        <DataArray type="Int64" Name="connectivity" format="ascii" RangeMin="0" RangeMax="41">
          0 1 2 1 3 2
          3 4 2 5 2 4
          3 1 6 7 6 1
          1 8 7 7 8 9
          4 3 10 6 10 3
          10 11 4 5 4 11
          5 11 2 12 2 11
          8 2 9 12 9 2
          13 14 0 15 0 14
          16 0 17 15 17 0
          18 13 16 0 16 13
          6 7 19 20 19 7
          9 21 7 20 7 21
          10 6 22 19 22 6
          9 12 21 23 21 12
          10 22 11 24 11 22
          23 12 24 11 24 12
          18 25 13 13 25 26
          13 26 14 27 14 26
          28 14 29 27 29 14
          15 14 17 28 17 14
          30 31 28 31 17 28
          16 17 32 31 32 17
          16 32 18 33 18 32
          33 34 18 25 18 34
          35 36 20 19 20 36
          21 37 20 37 35 20
          19 36 22 22 36 38
          21 23 37 37 23 39
          38 40 22 24 22 40
          24 40 23 39 23 40
          25 29 26 27 26 29
          41 29 34 25 34 29
          28 29 30 41 30 29
          30 41 39 37 39 41
          39 40 30 31 30 40
          32 31 38 40 38 31
          36 33 38 32 38 33
          34 33 35 36 35 33
          34 35 41 37 41 35
        </DataArray>
        <DataArray type="Int64" Name="offsets" format="ascii" RangeMin="3" RangeMax="240">
          3 6 9 12 15 18
          21 24 27 30 33 36
          39 42 45 48 51 54
          57 60 63 66 69 72
          75 78 81 84 87 90
          93 96 99 102 105 108
          111 114 117 120 123 126
          129 132 135 138 141 144
          147 150 153 156 159 162
          165 168 171 174 177 180
          183 186 189 192 195 198
          201 204 207 210 213 216
          219 222 225 228 231 234
          237 240
        </DataArray>
      </Polys>
    </Piece>
  </PolyData>
</VTKFile>
